18
	Energy:       5.3029355
C         -1.89519        0.64349       -4.26078
C         -2.27226        1.89759       -3.76789
C         -1.95162        2.27292       -2.46416
C         -1.25010        1.39790       -1.63870
C         -0.86974        0.14722       -2.11876
C         -1.19012       -0.22873       -3.42252
C         -2.24827        0.25315       -5.66897
O         -2.86052        0.99787       -6.41202
O         -1.83849       -0.98005       -6.04966
C         -2.13640       -1.43735       -7.39072
H         -1.73334       -2.44496       -7.51974
H         -1.67465       -0.76160       -8.11620
H         -3.22019       -1.45404       -7.53674
H         -2.82041        2.59207       -4.40001
H         -2.24969        3.24997       -2.09162
H         -0.32193       -0.53765       -1.47606
H         -0.88406       -1.20942       -3.77811
H         -0.99987        1.69044       -0.62171
